Element,AtomicNumber,Volume,Density,Energy,Family
Hydrogen,1,14.1,0.0899,13.6,Nonmetal
Oxygen,8,14.0,1.429,13.62,Nonmetal
Gold,79,10.2,19.32,9.22,Transition Metal
Carbon,6,5.3,2.267,11.26,Nonmetal
Iron,26,7.1,7.874,7.87,Transition Metal
Uranium,92,12.0,18.95,6.51,Actinide
Oganesson,118,23.0,5.0,5.0,Noble Gas